<?xml version="1.0" encoding="UTF-8"?>

<!-- generated on 04/21/18 16:13:39 by SUMO Version 0.32.0
<?xml version="1.0" encoding="UTF-8"?>

<configuration xmlns:xsi="http://www.w3.org/2001/XMLSchema-instance" xsi:noNamespaceSchemaLocation="http://sumo.dlr.de/xsd/sumoConfiguration.xsd">

    <input>
        <net-file value="data/cross.net.xml"/>
        <route-files value="data/cross.rou.xml"/>
        <additional-files value="data/cross.det.xml"/>
    </input>

    <output>
        <tripinfo-output value="tripinfo.xml"/>
    </output>

    <time>
        <begin value="0"/>
    </time>

    <report>
        <verbose value="true"/>
        <no-step-log value="true"/>
    </report>

    <traci_server>
        <remote-port value="57863"/>
    </traci_server>

</configuration>
-->

<detector xmlns:xsi="http://www.w3.org/2001/XMLSchema-instance" xsi:noNamespaceSchemaLocation="http://sumo.dlr.de/xsd/det_e1_file.xsd">
    <interval begin="0.00" end="30.00" id="0" nVehContrib="0" flow="0.00" occupancy="0.00" speed="-1.00" length="-1.00" nVehEntered="0"/>
    <interval begin="30.00" end="60.00" id="0" nVehContrib="2" flow="240.00" occupancy="2.04" speed="16.32" length="5.00" nVehEntered="2"/>
    <interval begin="60.00" end="90.00" id="0" nVehContrib="5" flow="600.00" occupancy="5.20" speed="16.05" length="5.00" nVehEntered="5"/>
    <interval begin="90.00" end="120.00" id="0" nVehContrib="5" flow="600.00" occupancy="5.92" speed="14.18" length="5.00" nVehEntered="5"/>
    <interval begin="120.00" end="150.00" id="0" nVehContrib="3" flow="360.00" occupancy="13.70" speed="8.54" length="5.00" nVehEntered="5"/>
    <interval begin="150.00" end="180.00" id="0" nVehContrib="0" flow="0.00" occupancy="100.00" speed="-1.00" length="-1.00" nVehEntered="0"/>
    <interval begin="180.00" end="210.00" id="0" nVehContrib="2" flow="240.00" occupancy="83.82" speed="1.22" length="5.00" nVehEntered="2"/>
    <interval begin="210.00" end="240.00" id="0" nVehContrib="3" flow="360.00" occupancy="83.10" speed="4.86" length="5.00" nVehEntered="3"/>
    <interval begin="240.00" end="270.00" id="0" nVehContrib="0" flow="0.00" occupancy="100.00" speed="-1.00" length="-1.00" nVehEntered="0"/>
    <interval begin="270.00" end="300.00" id="0" nVehContrib="5" flow="600.00" occupancy="66.38" speed="3.48" length="5.00" nVehEntered="4"/>
    <interval begin="300.00" end="330.00" id="0" nVehContrib="2" flow="240.00" occupancy="86.26" speed="6.07" length="5.00" nVehEntered="3"/>
    <interval begin="330.00" end="360.00" id="0" nVehContrib="5" flow="600.00" occupancy="67.80" speed="3.15" length="5.00" nVehEntered="5"/>
    <interval begin="360.00" end="390.00" id="0" nVehContrib="2" flow="240.00" occupancy="87.44" speed="1.27" length="5.00" nVehEntered="1"/>
    <interval begin="390.00" end="420.00" id="0" nVehContrib="6" flow="720.00" occupancy="55.51" speed="5.69" length="5.00" nVehEntered="7"/>
    <interval begin="420.00" end="450.00" id="0" nVehContrib="1" flow="120.00" occupancy="95.99" speed="0.13" length="5.00" nVehEntered="0"/>
    <interval begin="450.00" end="480.00" id="0" nVehContrib="5" flow="600.00" occupancy="33.64" speed="4.82" length="5.00" nVehEntered="7"/>
    <interval begin="480.00" end="510.00" id="0" nVehContrib="2" flow="240.00" occupancy="84.39" speed="1.11" length="5.00" nVehEntered="1"/>
    <interval begin="510.00" end="540.00" id="0" nVehContrib="3" flow="360.00" occupancy="57.39" speed="4.64" length="5.00" nVehEntered="4"/>
    <interval begin="540.00" end="570.00" id="0" nVehContrib="0" flow="0.00" occupancy="100.00" speed="-1.00" length="-1.00" nVehEntered="0"/>
    <interval begin="570.00" end="600.00" id="0" nVehContrib="3" flow="360.00" occupancy="78.35" speed="1.97" length="5.00" nVehEntered="3"/>
    <interval begin="600.00" end="630.00" id="0" nVehContrib="1" flow="120.00" occupancy="94.18" speed="4.70" length="5.00" nVehEntered="1"/>
    <interval begin="630.00" end="660.00" id="0" nVehContrib="7" flow="840.00" occupancy="55.68" speed="4.06" length="5.00" nVehEntered="7"/>
    <interval begin="660.00" end="690.00" id="0" nVehContrib="0" flow="0.00" occupancy="100.00" speed="-1.00" length="-1.00" nVehEntered="0"/>
    <interval begin="690.00" end="720.00" id="0" nVehContrib="2" flow="240.00" occupancy="84.06" speed="1.26" length="5.00" nVehEntered="2"/>
    <interval begin="720.00" end="750.00" id="0" nVehContrib="5" flow="600.00" occupancy="69.02" speed="3.42" length="5.00" nVehEntered="4"/>
    <interval begin="750.00" end="780.00" id="0" nVehContrib="2" flow="240.00" occupancy="85.98" speed="6.22" length="5.00" nVehEntered="3"/>
    <interval begin="780.00" end="810.00" id="0" nVehContrib="7" flow="840.00" occupancy="58.37" speed="4.33" length="5.00" nVehEntered="6"/>
    <interval begin="810.00" end="840.00" id="0" nVehContrib="1" flow="120.00" occupancy="82.67" speed="7.94" length="5.00" nVehEntered="2"/>
    <interval begin="840.00" end="870.00" id="0" nVehContrib="6" flow="720.00" occupancy="44.50" speed="5.67" length="5.00" nVehEntered="5"/>
    <interval begin="870.00" end="900.00" id="0" nVehContrib="5" flow="600.00" occupancy="7.72" speed="11.30" length="5.00" nVehEntered="6"/>
    <interval begin="900.00" end="930.00" id="0" nVehContrib="4" flow="480.00" occupancy="16.81" speed="11.00" length="5.00" nVehEntered="5"/>
    <interval begin="930.00" end="960.00" id="0" nVehContrib="5" flow="600.00" occupancy="7.16" speed="12.30" length="5.00" nVehEntered="5"/>
    <interval begin="960.00" end="990.00" id="0" nVehContrib="5" flow="600.00" occupancy="6.25" speed="14.12" length="5.00" nVehEntered="6"/>
    <interval begin="990.00" end="1020.00" id="0" nVehContrib="5" flow="600.00" occupancy="6.24" speed="13.57" length="5.00" nVehEntered="5"/>
    <interval begin="1020.00" end="1050.00" id="0" nVehContrib="5" flow="600.00" occupancy="6.35" speed="13.70" length="5.00" nVehEntered="5"/>
    <interval begin="1050.00" end="1080.00" id="0" nVehContrib="3" flow="360.00" occupancy="5.40" speed="9.82" length="5.00" nVehEntered="4"/>
    <interval begin="1080.00" end="1110.00" id="0" nVehContrib="5" flow="600.00" occupancy="4.97" speed="16.26" length="5.00" nVehEntered="4"/>
    <interval begin="1110.00" end="1140.00" id="0" nVehContrib="6" flow="720.00" occupancy="8.82" speed="11.96" length="5.00" nVehEntered="6"/>
    <interval begin="1140.00" end="1170.00" id="0" nVehContrib="6" flow="720.00" occupancy="6.82" speed="14.96" length="5.00" nVehEntered="6"/>
    <interval begin="1170.00" end="1200.00" id="0" nVehContrib="5" flow="600.00" occupancy="7.23" speed="12.55" length="5.00" nVehEntered="6"/>
    <interval begin="1200.00" end="1230.00" id="0" nVehContrib="5" flow="600.00" occupancy="6.30" speed="15.60" length="5.00" nVehEntered="6"/>
    <interval begin="1230.00" end="1260.00" id="0" nVehContrib="5" flow="600.00" occupancy="7.30" speed="10.90" length="5.00" nVehEntered="5"/>
    <interval begin="1260.00" end="1290.00" id="0" nVehContrib="5" flow="600.00" occupancy="5.66" speed="15.10" length="5.00" nVehEntered="5"/>
    <interval begin="1290.00" end="1320.00" id="0" nVehContrib="5" flow="600.00" occupancy="6.47" speed="13.15" length="5.00" nVehEntered="5"/>
    <interval begin="1320.00" end="1350.00" id="0" nVehContrib="3" flow="360.00" occupancy="24.34" speed="7.90" length="5.00" nVehEntered="5"/>
    <interval begin="1350.00" end="1380.00" id="0" nVehContrib="3" flow="360.00" occupancy="54.51" speed="2.87" length="5.00" nVehEntered="3"/>
    <interval begin="1380.00" end="1410.00" id="0" nVehContrib="6" flow="720.00" occupancy="7.33" speed="15.50" length="5.00" nVehEntered="7"/>
    <interval begin="1410.00" end="1440.00" id="0" nVehContrib="4" flow="480.00" occupancy="7.50" speed="10.20" length="5.00" nVehEntered="5"/>
    <interval begin="1440.00" end="1470.00" id="0" nVehContrib="1" flow="120.00" occupancy="80.84" speed="9.45" length="5.00" nVehEntered="1"/>
    <interval begin="1470.00" end="1500.00" id="0" nVehContrib="6" flow="720.00" occupancy="28.26" speed="6.61" length="5.00" nVehEntered="5"/>
    <interval begin="1500.00" end="1530.00" id="0" nVehContrib="5" flow="600.00" occupancy="8.24" speed="10.64" length="5.00" nVehEntered="6"/>
    <interval begin="1530.00" end="1560.00" id="0" nVehContrib="5" flow="600.00" occupancy="6.75" speed="14.24" length="5.00" nVehEntered="5"/>
    <interval begin="1560.00" end="1590.00" id="0" nVehContrib="5" flow="600.00" occupancy="7.01" speed="12.30" length="5.00" nVehEntered="5"/>
    <interval begin="1590.00" end="1620.00" id="0" nVehContrib="6" flow="720.00" occupancy="6.68" speed="15.17" length="5.00" nVehEntered="6"/>
    <interval begin="1620.00" end="1650.00" id="0" nVehContrib="6" flow="720.00" occupancy="9.00" speed="11.63" length="5.00" nVehEntered="6"/>
    <interval begin="1650.00" end="1680.00" id="0" nVehContrib="5" flow="600.00" occupancy="5.30" speed="15.76" length="5.00" nVehEntered="6"/>
    <interval begin="1680.00" end="1710.00" id="0" nVehContrib="6" flow="720.00" occupancy="7.15" speed="14.25" length="5.00" nVehEntered="6"/>
    <interval begin="1710.00" end="1740.00" id="0" nVehContrib="5" flow="600.00" occupancy="5.75" speed="15.42" length="5.00" nVehEntered="6"/>
    <interval begin="1740.00" end="1770.00" id="0" nVehContrib="4" flow="480.00" occupancy="6.88" speed="9.46" length="5.00" nVehEntered="3"/>
    <interval begin="1770.00" end="1800.00" id="0" nVehContrib="0" flow="0.00" occupancy="0.00" speed="-1.00" length="-1.00" nVehEntered="0"/>
    <interval begin="1800.00" end="1830.00" id="0" nVehContrib="0" flow="0.00" occupancy="0.00" speed="-1.00" length="-1.00" nVehEntered="0"/>
    <interval begin="1830.00" end="1860.00" id="0" nVehContrib="0" flow="0.00" occupancy="0.00" speed="-1.00" length="-1.00" nVehEntered="0"/>
    <interval begin="1860.00" end="1890.00" id="0" nVehContrib="0" flow="0.00" occupancy="0.00" speed="-1.00" length="-1.00" nVehEntered="0"/>
    <interval begin="1890.00" end="1920.00" id="0" nVehContrib="0" flow="0.00" occupancy="0.00" speed="-1.00" length="-1.00" nVehEntered="0"/>
    <interval begin="1920.00" end="1950.00" id="0" nVehContrib="0" flow="0.00" occupancy="0.00" speed="-1.00" length="-1.00" nVehEntered="0"/>
    <interval begin="1950.00" end="1980.00" id="0" nVehContrib="0" flow="0.00" occupancy="0.00" speed="-1.00" length="-1.00" nVehEntered="0"/>
    <interval begin="1980.00" end="2010.00" id="0" nVehContrib="0" flow="0.00" occupancy="0.00" speed="-1.00" length="-1.00" nVehEntered="0"/>
    <interval begin="2010.00" end="2040.00" id="0" nVehContrib="0" flow="0.00" occupancy="0.00" speed="-1.00" length="-1.00" nVehEntered="0"/>
    <interval begin="2040.00" end="2070.00" id="0" nVehContrib="0" flow="0.00" occupancy="0.00" speed="-1.00" length="-1.00" nVehEntered="0"/>
    <interval begin="2070.00" end="2100.00" id="0" nVehContrib="0" flow="0.00" occupancy="0.00" speed="-1.00" length="-1.00" nVehEntered="0"/>
    <interval begin="2100.00" end="2130.00" id="0" nVehContrib="0" flow="0.00" occupancy="0.00" speed="-1.00" length="-1.00" nVehEntered="0"/>
    <interval begin="2130.00" end="2160.00" id="0" nVehContrib="0" flow="0.00" occupancy="0.00" speed="-1.00" length="-1.00" nVehEntered="0"/>
    <interval begin="2160.00" end="2190.00" id="0" nVehContrib="0" flow="0.00" occupancy="0.00" speed="-1.00" length="-1.00" nVehEntered="0"/>
    <interval begin="2190.00" end="2220.00" id="0" nVehContrib="0" flow="0.00" occupancy="0.00" speed="-1.00" length="-1.00" nVehEntered="0"/>
    <interval begin="2220.00" end="2250.00" id="0" nVehContrib="0" flow="0.00" occupancy="0.00" speed="-1.00" length="-1.00" nVehEntered="0"/>
    <interval begin="2250.00" end="2280.00" id="0" nVehContrib="0" flow="0.00" occupancy="0.00" speed="-1.00" length="-1.00" nVehEntered="0"/>
    <interval begin="2280.00" end="2310.00" id="0" nVehContrib="0" flow="0.00" occupancy="0.00" speed="-1.00" length="-1.00" nVehEntered="0"/>
    <interval begin="2310.00" end="2340.00" id="0" nVehContrib="0" flow="0.00" occupancy="0.00" speed="-1.00" length="-1.00" nVehEntered="0"/>
    <interval begin="2340.00" end="2370.00" id="0" nVehContrib="0" flow="0.00" occupancy="0.00" speed="-1.00" length="-1.00" nVehEntered="0"/>
    <interval begin="2370.00" end="2400.00" id="0" nVehContrib="0" flow="0.00" occupancy="0.00" speed="-1.00" length="-1.00" nVehEntered="0"/>
    <interval begin="2400.00" end="2430.00" id="0" nVehContrib="0" flow="0.00" occupancy="0.00" speed="-1.00" length="-1.00" nVehEntered="0"/>
    <interval begin="2430.00" end="2460.00" id="0" nVehContrib="0" flow="0.00" occupancy="0.00" speed="-1.00" length="-1.00" nVehEntered="0"/>
    <interval begin="2460.00" end="2490.00" id="0" nVehContrib="0" flow="0.00" occupancy="0.00" speed="-1.00" length="-1.00" nVehEntered="0"/>
    <interval begin="2490.00" end="2520.00" id="0" nVehContrib="0" flow="0.00" occupancy="0.00" speed="-1.00" length="-1.00" nVehEntered="0"/>
    <interval begin="2520.00" end="2550.00" id="0" nVehContrib="0" flow="0.00" occupancy="0.00" speed="-1.00" length="-1.00" nVehEntered="0"/>
    <interval begin="2550.00" end="2580.00" id="0" nVehContrib="0" flow="0.00" occupancy="0.00" speed="-1.00" length="-1.00" nVehEntered="0"/>
    <interval begin="2580.00" end="2610.00" id="0" nVehContrib="0" flow="0.00" occupancy="0.00" speed="-1.00" length="-1.00" nVehEntered="0"/>
    <interval begin="2610.00" end="2640.00" id="0" nVehContrib="0" flow="0.00" occupancy="0.00" speed="-1.00" length="-1.00" nVehEntered="0"/>
    <interval begin="2640.00" end="2670.00" id="0" nVehContrib="0" flow="0.00" occupancy="0.00" speed="-1.00" length="-1.00" nVehEntered="0"/>
    <interval begin="2670.00" end="2700.00" id="0" nVehContrib="0" flow="0.00" occupancy="0.00" speed="-1.00" length="-1.00" nVehEntered="0"/>
    <interval begin="2700.00" end="2730.00" id="0" nVehContrib="0" flow="0.00" occupancy="0.00" speed="-1.00" length="-1.00" nVehEntered="0"/>
    <interval begin="2730.00" end="2760.00" id="0" nVehContrib="0" flow="0.00" occupancy="0.00" speed="-1.00" length="-1.00" nVehEntered="0"/>
    <interval begin="2760.00" end="2790.00" id="0" nVehContrib="0" flow="0.00" occupancy="0.00" speed="-1.00" length="-1.00" nVehEntered="0"/>
    <interval begin="2790.00" end="2820.00" id="0" nVehContrib="0" flow="0.00" occupancy="0.00" speed="-1.00" length="-1.00" nVehEntered="0"/>
    <interval begin="2820.00" end="2824.00" id="0" nVehContrib="0" flow="0.00" occupancy="0.00" speed="-1.00" length="-1.00" nVehEntered="0"/>
</detector>
